<?xml version="1.0"?>
<VTKFile type="PolyData" version="0.1" byte_order="LittleEndian" compressor="vtkZLibDataCompressor">
	<PolyData>
		<Piece NumberOfPoints="1920" NumberOfVerts="0" NumberOfLines="0" NumberOfStrips="0" NumberOfPolys="2114">
		<PointData Normals="Normals">
		<DataArray type="Float32" Name="Normals" NumberOfComponents="3" format="ascii">
			 0.575457 -0.128597 -0.807658
			 0.466916  0.086374 -0.880073
			 0.364219  0.011222 -0.931246
			 0.374447  0.507320 -0.776155
			 0.040198  0.208551 -0.977185
			 0.318319  0.168932 -0.932810
			 0.199075  0.874281 -0.442721
			 0.396460  0.338561 -0.853344
			-0.029356  0.074150 -0.996815
			 0.003595  0.245495 -0.969391
			-0.031020  0.179441 -0.983279
			-0.073905  0.001085 -0.997265
			-0.053058 -0.179863 -0.982260
			-0.009370 -0.241532 -0.970348
			 0.259800 -0.015970 -0.965530
			 0.431252  0.889070  0.153548
			 0.425600  0.343620 -0.837132
			 0.087520  0.741781  0.664906
			 0.154784 -0.278933 -0.947754
			-0.128117  0.865746 -0.483808
			-0.083869  0.882035  0.463659
			 0.085089 -0.543647 -0.834990
			 0.061390 -0.590772 -0.804500
			-0.444815  0.644341 -0.622064
			-0.681028  0.001264 -0.732256
			-0.463418 -0.640065 -0.612830
			-0.136427 -0.841489 -0.522766
			 0.204985  0.625368  0.752925
			 0.846342  0.278787  0.453853
			-0.058192  0.473620  0.878804
			 0.744713 -0.655643 -0.124641
			 0.032026  0.631877  0.774407
			 0.262458 -0.678027 -0.686582
			-0.493791  0.851603  0.175902
			-0.229255  0.723846  0.650761
			-0.207035 -0.727146 -0.654520
			-0.272998 -0.373268 -0.886647
			-0.964821  0.175165 -0.196054
			-0.689309 -0.499839 -0.524418
			 0.316742  0.831066  0.457170
			 0.489043  0.232145  0.840800
			 0.054933  0.998019  0.030669
			 0.557881 -0.364486  0.745600
			-0.135811  0.960553  0.242681
			 0.387194 -0.915659  0.107937
			-0.411627  0.722646  0.555289
			-0.512226 -0.713456 -0.478127
			-0.850567  0.425092  0.309569
			-0.750795  0.481410  0.452275
			-0.852606 -0.089159 -0.514891
			-0.995610  0.040757 -0.084259
			 0.505479  0.588992  0.630539
			 0.230787  0.082902  0.969466
			 0.269436  0.956725  0.109917
			 0.173042 -0.144377  0.974275
			-0.203077  0.892092  0.403649
			 0.161988 -0.493958  0.854263
			-0.378271  0.559943  0.737139
			-0.357287 -0.610129  0.707170
			-0.481734  0.338707  0.808214
			-0.669090 -0.094826  0.737107
			 0.177817  0.015370  0.983943
			 0.001223 -0.089238  0.996009
			 0.149768  0.224359  0.962929
			-0.050027 -0.032145  0.998230
			 0.127536  0.206219  0.970159
			 0.010682 -0.059843  0.998151
			 0.278311  0.295489  0.913909
			 0.025467 -0.116571  0.992856
			 0.350232 -0.020454  0.936440
			 0.151838 -0.310632  0.938325
			 0.220666 -0.116351  0.968385
			 0.233350  0.271604 -0.933691
			 0.183547  0.056348 -0.981395
			-0.068506  0.013782 -0.997556
			 0.752560  0.535169 -0.383729
			 0.799419  0.032926 -0.599871
			 0.095518  0.371926 -0.923335
			 0.347860  0.896834 -0.273281
			 0.080001 -0.145369 -0.986138
			 0.546891 -0.517844 -0.657836
			-0.157700  0.338696 -0.927586
			-0.376338  0.192534 -0.906257
			-0.456392  0.020138 -0.889551
			-0.407185 -0.152474 -0.900529
			-0.168821 -0.288469 -0.942489
			 0.037087 -0.269029 -0.962418
			 0.843349  0.414826  0.341587
			 0.994245 -0.067596  0.083114
			 0.367936  0.739190  0.564112
			 0.731837 -0.678794  0.060444
			-0.270992  0.886951 -0.374007
			-0.149310  0.947726  0.281995
			 0.197570 -0.806030 -0.557927
			 0.215934 -0.944226  0.248614
			-0.683712  0.518887 -0.513121
			-0.853609  0.002248 -0.520910
			-0.677862 -0.544885 -0.493562
			-0.224652 -0.845714 -0.484044
			 0.635107  0.172163  0.752993
			 0.752598 -0.013310  0.658346
			 0.276974  0.328641  0.902929
			 0.639485 -0.395564  0.659233
			 0.032425  0.505595  0.862161
			 0.237087 -0.745888  0.622448
			-0.669531  0.725256 -0.160414
			-0.216063  0.557624  0.801481
			 0.034345 -0.942509  0.332411
			 0.010707 -0.826678  0.562574
			-0.984559 -0.050545 -0.167594
			-0.544114 -0.828359  0.133272
			 0.315977 -0.165097  0.934292
			 0.234722  0.044486  0.971044
			 0.180347 -0.139715  0.973630
			 0.345065  0.195313  0.918032
			 0.071631 -0.154851  0.985338
			 0.295603 -0.098862  0.950182
			 0.245352 -0.156804  0.956669
			-0.132889 -0.353406  0.925983
			-0.642513 -0.113295  0.757853
			 0.246275 -0.024952  0.968879
			-0.290496 -0.674436  0.678784
			-0.023461 -0.102625  0.994443
			 0.175250  0.030805  0.984042
			 0.408803  0.182972 -0.894092
			 0.581424  0.018418 -0.813392
			-0.202901 -0.082610 -0.975708
			 0.884502  0.267333 -0.382348
			 0.989359  0.097499 -0.107998
			 0.145409  0.289410 -0.946096
			 0.412042  0.646229 -0.642347
			 0.423077 -0.190166 -0.885913
			 0.983988 -0.101151 -0.146754
			-0.327402  0.338773 -0.882066
			-0.718879  0.224641 -0.657837
			-0.751442  0.060379 -0.657031
			-0.606869 -0.063913 -0.792228
			-0.260145 -0.184346 -0.947808
			 0.111562 -0.251563 -0.961390
			 0.930274  0.354042  0.096151
			 0.999823  0.015780 -0.010265
			 0.479376  0.859252  0.178566
			 0.920040 -0.317224  0.229991
			-0.380860  0.865063 -0.326514
			-0.229068  0.735425  0.637713
			 0.590496 -0.672143 -0.446697
			 0.424825 -0.601597  0.676465
			-0.753548  0.587486  0.295003
			-0.930713  0.198372  0.307280
			-0.983356 -0.161162 -0.083891
			-0.631506 -0.633085 -0.447664
			 0.571134  0.172046  0.802625
			 0.773339 -0.040946  0.632670
			 0.226783  0.297742  0.927318
			 0.577398 -0.246736  0.778288
			-0.045280  0.140164  0.989093
			 0.183759 -0.161188  0.969666
			-0.072564  0.343130  0.936481
			 0.158214 -0.020234  0.987197
			-0.438085 -0.488011  0.754935
			-0.111086 -0.038838  0.993052
			-0.060911  0.168288  0.983854
			-0.590548 -0.136618  0.795354
			 0.090246  0.000005  0.995919
			 0.223958  0.067881  0.972232
			-0.099730  0.049252  0.993795
			 0.592690  0.070659 -0.802326
			 0.675008 -0.151004 -0.722192
			-0.137423 -0.222474 -0.965205
			 0.972185  0.229387 -0.047303
			 0.994937 -0.057310  0.082561
			 0.251215  0.224998 -0.941418
			 0.588227  0.782785 -0.203070
			 0.522519 -0.463450 -0.715673
			 0.915458 -0.372713  0.151727
			-0.310352  0.219403 -0.924956
			-0.624082  0.024170 -0.780985
			-0.673928 -0.159340 -0.721409
			-0.540422 -0.396156 -0.742297
			-0.205087 -0.591754 -0.779594
			 0.170859 -0.621840 -0.764279
			 0.629917  0.337496  0.699500
			 0.673030  0.071167  0.736183
			 0.275245  0.589402  0.759504
			 0.565228 -0.136242  0.813606
			-0.512768  0.844297 -0.155665
			-0.230459  0.578698  0.782303
			 0.493742 -0.849617  0.185392
			 0.218378 -0.262899  0.939785
			-0.942224  0.334310 -0.021229
			-0.997502 -0.054325  0.045154
			-0.875031 -0.473316  0.101447
			-0.415222 -0.896524  0.154386
			-0.021187  0.167299  0.985679
			-0.505324  0.356951  0.785643
			-0.237481 -0.259925  0.935971
			-0.585298  0.101987  0.804379
			-0.498715 -0.121444  0.858216
			 0.413542 -0.235747 -0.879435
			 0.632561 -0.185940 -0.751860
			 0.384864 -0.066958 -0.920541
			 0.760087 -0.139544 -0.634662
			 0.942891 -0.191926 -0.272251
			 0.215278 -0.265048 -0.939896
			 0.430015  0.040668 -0.901905
			 0.740108 -0.330756 -0.585526
			 0.907913 -0.402856 -0.115766
			 0.070915 -0.140277 -0.987569
			 0.094770  0.037086 -0.994808
			 0.014773 -0.188110 -0.982037
			 0.073789 -0.515731 -0.853567
			 0.071664 -0.538443 -0.839609
			 0.297136 -0.511971 -0.805975
			 0.963992  0.255745  0.072903
			 0.940716  0.035831  0.337299
			 0.591252  0.799195 -0.108199
			 0.878485 -0.212290  0.428016
			-0.447647  0.172624 -0.877390
			-0.576392  0.813000 -0.082479
			 0.414487 -0.745913 -0.521358
			 0.587212 -0.716847  0.375916
			-0.924560  0.094973 -0.369010
			-0.961117 -0.069757 -0.267186
			-0.754243 -0.423268 -0.501958
			-0.273737 -0.718147 -0.639792
			 0.617586  0.341064  0.708705
			 0.518343  0.141167  0.843441
			 0.322715  0.616870  0.717863
			 0.410095  0.008418  0.912004
			-0.308538  0.700576  0.643427
			 0.212178 -0.094962  0.972606
			-0.961486  0.273551  0.026734
			-0.793663  0.437782  0.422429
			-0.564931 -0.755993  0.330647
			-0.187452 -0.122247  0.974637
			-0.982196 -0.018356  0.186961
			-0.928908 -0.231634  0.288923
			 0.023321  0.186267  0.982222
			-0.806408  0.010261  0.591271
			-0.521341 -0.117279  0.845251
			 0.722339  0.059049 -0.689013
			 0.781780 -0.020446 -0.623219
			 0.085144 -0.038777 -0.995614
			 0.949627  0.274883 -0.150490
			 0.982932 -0.085926 -0.162669
			 0.352283  0.294711 -0.888281
			 0.532680  0.815507 -0.226274
			 0.742588 -0.142491 -0.654416
			 0.827076 -0.559944 -0.049068
			-0.337088  0.305119 -0.890659
			-0.732017  0.058379 -0.678780
			-0.796451 -0.030489 -0.603934
			-0.733681 -0.131200 -0.666707
			-0.347858 -0.473264 -0.809331
			 0.381282 -0.479505 -0.790379
			 0.922265  0.289318  0.256362
			 0.979750 -0.093339  0.177138
			 0.478705  0.766647  0.427894
			 0.726485 -0.639991  0.250263
			-0.348327  0.876686 -0.331800
			-0.123592  0.964172  0.234729
			 0.315782 -0.913035  0.258165
			 0.206292 -0.881860  0.423989
			-0.787423  0.458411 -0.412097
			-0.957054 -0.052485 -0.285118
			-0.879762 -0.453836  0.141604
			-0.290724 -0.822503  0.488844
			 0.680357 -0.103979  0.725467
			 0.680791 -0.014113  0.732342
			 0.383859  0.113454  0.916395
			 0.731037  0.006448  0.682308
			-0.213520  0.304784  0.928179
			 0.523444 -0.341250  0.780740
			-0.583155  0.791140 -0.184469
			-0.552250  0.239267  0.798606
			 0.123058 -0.842473  0.524496
			-0.130727 -0.533654  0.835538
			-0.970847 -0.072671 -0.228420
			-0.463035 -0.852221  0.243553
			 0.018728  0.039967  0.999026
			-0.669770 -0.015694  0.742403
			-0.552857 -0.319632  0.769535
			 0.396706  0.004089 -0.917937
			 0.364123  0.044251 -0.930299
			 0.104427  0.056290 -0.992938
			 0.777139  0.331126 -0.535173
			 0.662767  0.036985 -0.747912
			 0.193853  0.151912 -0.969198
			 0.416713  0.769620 -0.483772
			 0.307540  0.104046 -0.945830
			 0.635263 -0.255160 -0.728927
			-0.135210  0.137172 -0.981276
			-0.285342  0.023683 -0.958133
			-0.369865  0.040235 -0.928214
			-0.429566  0.012585 -0.902948
			-0.209456 -0.159747 -0.964681
			 0.155300 -0.095007 -0.983288
			 0.835522  0.479804  0.267752
			 0.994781 -0.043427 -0.092328
			 0.329444  0.823040  0.462678
			 0.743276 -0.659664  0.111279
			-0.445984  0.687617 -0.572958
			-0.463698  0.796892  0.387230
			 0.432676 -0.807555 -0.400806
			 0.171011 -0.676484  0.716327
			-0.752837  0.211807 -0.623197
			-0.865445  0.003634 -0.500991
			-0.953625 -0.243966 -0.176296
			-0.586504 -0.803621 -0.101022
			 0.729885  0.378817  0.569005
			 0.773178 -0.101255  0.626053
			 0.347199  0.737719  0.578984
			 0.309664 -0.564774  0.764944
			-0.412100  0.696076  0.587922
			-0.037562 -0.568121  0.822087
			-0.938154  0.332998  0.094764
			-0.851717  0.280033  0.442900
			-0.221718 -0.454735  0.862587
			-0.047037 -0.506786  0.860788
			-0.960631 -0.015603  0.277388
			-0.640395 -0.276449  0.716568
			 0.663100  0.246712  0.706705
			 0.579490 -0.031721  0.814362
			 0.359886  0.591089  0.721870
			 0.569997 -0.380657  0.728151
			-0.357980  0.618063  0.699892
			 0.372459 -0.900085  0.226099
			-0.813910  0.313951  0.488861
			-0.310792 -0.945260 -0.099463
			-0.826067 -0.088546  0.556573
			-0.964938 -0.049308  0.257807
			-0.402070 -0.410293  0.818535
			-0.869779 -0.487704  0.075030
			 0.764783  0.486728  0.422141
			 0.986916  0.062934  0.148448
			 0.269887  0.741805  0.613910
			 0.914066 -0.369096 -0.168081
			-0.377319  0.759136  0.530418
			 0.466499 -0.729424 -0.500320
			-0.874168  0.435523  0.214824
			-0.465194 -0.681905 -0.564446
			-0.994799  0.059150 -0.082917
			-0.915910 -0.244568 -0.318267
			 0.720558  0.574424  0.388373
			 0.976942  0.091698  0.192812
			 0.245093  0.821380  0.515038
			 0.877097 -0.463006  0.127777
			-0.374073  0.801936  0.465799
			 0.364813 -0.892520  0.265178
			-0.849272  0.446340  0.281988
			-0.448840 -0.817726  0.360371
			-0.976233  0.043352  0.212345
			-0.901154 -0.344469  0.263177
			 0.362433  0.215746  0.906695
			 0.409968  0.041976  0.911134
			 0.144076  0.351641  0.924982
			 0.360516 -0.139425  0.922274
			-0.172281  0.359293  0.917185
			 0.170596 -0.310123  0.935265
			-0.431878  0.229744  0.872181
			-0.197311 -0.311274  0.929611
			-0.527493  0.028061  0.849096
			-0.469191 -0.157517  0.868935
			 0.014475  0.042860  0.998976
			-0.337344  0.107551  0.935218
			-0.440280 -0.057088  0.896044
			 0.164490 -0.178318  0.970127
			-0.864312  0.281407  0.416863
			-0.960942  0.104912  0.256096
			-0.124171  0.195135  0.972884
			-0.408270  0.692575  0.594690
			-0.279710 -0.265571  0.922624
			-0.925136 -0.109724  0.363433
			 0.304563  0.226813  0.925093
			 0.657839  0.152793  0.737498
			 0.651051  0.001807  0.759032
			 0.415408 -0.166224  0.894319
			 0.131800 -0.268655  0.954177
			-0.053669 -0.312502  0.948400
			-0.974700  0.196679 -0.106200
			-0.980156  0.104356 -0.168538
			-0.563115  0.803114 -0.194706
			-0.970676 -0.019817 -0.239574
			 0.382689  0.773690  0.504929
			 0.405670  0.869524 -0.281709
			-0.414650 -0.533480  0.737200
			-0.667172 -0.666213 -0.333228
			 0.855021  0.457936  0.243380
			 0.956572  0.123229  0.264170
			 0.822821 -0.166347  0.543411
			 0.371216 -0.502923  0.780556
			-0.987530  0.151827 -0.041621
			-0.996639  0.044046 -0.069064
			-0.607815  0.789319 -0.086811
			-0.910066 -0.124616 -0.395286
			 0.506609  0.836125 -0.210337
			-0.360559 -0.347634 -0.865533
			 0.858178  0.407321 -0.312443
			 0.918225  0.292360 -0.267186
			 0.506674 -0.767943 -0.391849
			-0.039006 -0.293776 -0.955078
			 0.952442  0.083232 -0.293133
			 0.923826 -0.207312 -0.321820
			-0.968491  0.215990 -0.123992
			-0.999253  0.014766  0.035720
			-0.576930  0.769898 -0.272781
			-0.945749 -0.287916 -0.150541
			 0.540483  0.776686 -0.323476
			-0.431694 -0.669934 -0.604011
			 0.920809  0.228464 -0.316093
			 0.137461 -0.649633 -0.747718
			 0.866955 -0.071836 -0.493183
			 0.899766 -0.101021 -0.424518
			 0.369286 -0.288108 -0.883528
			 0.674796 -0.371928 -0.637432
			-0.684607  0.060757 -0.726376
			-0.835950 -0.054790 -0.546064
			-0.302114  0.223675 -0.926659
			-0.805935 -0.275688 -0.523895
			 0.213047  0.216292 -0.952801
			-0.375031 -0.652604 -0.658376
			 0.458342  0.042848 -0.887742
			 0.330599 -0.636414 -0.696909
			 0.587854 -0.081447 -0.804856
			 0.670334 -0.271585 -0.690575
			-0.102632 -0.141185 -0.984649
			 0.311604 -0.867369  0.388039
			 0.240259 -0.970705 -0.002898
			 0.798311 -0.597442  0.075917
			-0.551634 -0.652919  0.519035
			-0.784435 -0.613785 -0.089046
			 0.542819 -0.712740  0.444240
			 0.022886 -0.531872  0.846515
			 0.359027 -0.811909 -0.460331
			-0.534099 -0.440685 -0.721481
			 0.778519 -0.493169  0.388191
			 0.920151 -0.325248  0.218027
			 0.957203 -0.289305 -0.008049
			 0.907382 -0.336113 -0.252362
			 0.737975 -0.482455 -0.471836
			 0.535675 -0.634291 -0.557429
			-0.861099 -0.285459  0.420741
			-0.975635 -0.176339 -0.130538
			-0.339940 -0.202982  0.918281
			-0.763731 -0.078502 -0.640743
			 0.557301 -0.093143  0.825070
			 0.382296  0.221953  0.896988
			-0.062840 -0.255584 -0.964742
			-0.321736  0.008304 -0.946793
			 0.741169  0.345008  0.575881
			 0.901277  0.427543  0.070043
			 0.858851  0.144167 -0.491518
			 0.464936 -0.099096 -0.879781
			-0.935669 -0.278902  0.216187
			-0.923030 -0.196032 -0.331039
			-0.430799 -0.148927  0.890075
			-0.684121 -0.057552 -0.727094
			 0.535278  0.226821  0.813652
			-0.297395  0.096212 -0.949894
			 0.565867  0.760709  0.317988
			 0.817210  0.526245 -0.235020
			 0.353784  0.204231 -0.912758
			 0.283393  0.345821 -0.894481
			 0.622125  0.782218  0.033087
			 0.828724  0.490722 -0.269087
			-0.952059 -0.282403  0.117606
			-0.883946 -0.265499 -0.384904
			-0.487027 -0.119000  0.865242
			-0.633593 -0.175662 -0.753461
			 0.563153  0.209181  0.799438
			-0.199287 -0.008170 -0.979907
			 0.927880  0.285092 -0.240336
			 0.390968  0.212265 -0.895594
			 0.794614  0.593891 -0.126021
			 0.939105  0.286959 -0.189039
			 0.850499  0.523117 -0.054776
			 0.929427  0.347611 -0.123824
			-0.887899 -0.215792  0.406286
			-0.922721 -0.347928 -0.165925
			-0.452127 -0.012845  0.891861
			-0.627633 -0.326394 -0.706785
			 0.364310  0.171518  0.915347
			-0.128739 -0.168521 -0.977255
			 0.930480  0.153961  0.332421
			 0.440770  0.011817 -0.897542
			 0.990852  0.119255 -0.063179
			 0.901947  0.144200 -0.407060
			-0.648538 -0.205497  0.732918
			-0.881585 -0.466311  0.073225
			-0.273086 -0.004045  0.961981
			-0.574153 -0.436970 -0.692392
			 0.171897  0.027490  0.984731
			-0.068422 -0.264055 -0.962078
			 0.637272 -0.044559  0.769350
			 0.386407 -0.114869 -0.915147
			 0.989615 -0.060944  0.130185
			 0.797959 -0.043027 -0.601174
			-0.532999 -0.237172  0.812195
			-0.886516 -0.431968  0.165809
			-0.124817 -0.080434  0.988914
			-0.660578 -0.437029 -0.610445
			 0.116038 -0.076627  0.990285
			-0.081051 -0.326128 -0.941844
			 0.501355 -0.109892  0.858235
			 0.390404 -0.192865 -0.900215
			 0.985190 -0.103426  0.136761
			 0.744574 -0.124443 -0.655838
			-0.698454  0.082520  0.710881
			-0.980979 -0.061312  0.184176
			-0.367129  0.217530  0.904377
			-0.884696 -0.127397 -0.448424
			-0.174172  0.189239  0.966361
			-0.376283 -0.087422 -0.922371
			 0.248695  0.251586  0.935337
			 0.226011  0.046588 -0.973010
			 0.863862  0.473657  0.171441
			 0.628791  0.257473 -0.733709
			-0.732522  0.635932  0.242904
			-0.838345  0.544295  0.030346
			-0.673537  0.681703  0.285709
			-0.837506  0.493983 -0.233593
			-0.639462  0.683955  0.351132
			-0.722001  0.522899 -0.453091
			-0.410826  0.821095  0.396263
			-0.449565  0.679067 -0.580310
			-0.159185  0.985821  0.053077
			-0.172561  0.897549 -0.405745
			-0.642529  0.763158 -0.068887
			-0.241798 -0.916222  0.319486
			-0.315995 -0.943681 -0.098044
			 0.473154 -0.880832 -0.016159
			-0.847742 -0.360600  0.388975
			-0.958199 -0.260984 -0.117224
			 0.054526 -0.880490  0.470919
			-0.330757 -0.433508  0.838255
			-0.125352 -0.816169 -0.564052
			-0.723528 -0.194441 -0.662344
			 0.522444 -0.730729  0.439417
			 0.819311 -0.538630  0.196489
			 0.868512 -0.492409 -0.056747
			 0.777123 -0.531788 -0.336573
			 0.442366 -0.656965 -0.610499
			 0.094753 -0.720320 -0.687140
			-0.920597 -0.094663  0.378868
			-0.991485 -0.002564 -0.130194
			-0.418437 -0.116334  0.900764
			-0.769276  0.051388 -0.636847
			 0.456305 -0.214160  0.863667
			 0.461956  0.075301  0.883700
			-0.238734 -0.157979 -0.958148
			-0.293104  0.067415 -0.953701
			 0.846387  0.079090  0.526662
			 0.988622  0.137386  0.061255
			 0.865618 -0.007270 -0.500652
			 0.376352 -0.122538 -0.918338
			-0.975294 -0.076805  0.207127
			-0.951843 -0.012339 -0.306337
			-0.477120 -0.070636  0.875995
			-0.673957  0.064140 -0.735981
			 0.592460  0.067974  0.802727
			-0.224911  0.138508 -0.964485
			 0.871398  0.378070  0.312615
			 0.955066  0.234859 -0.180806
			 0.446689  0.119659 -0.886651
			 0.446828  0.232588 -0.863856
			 0.915588  0.394366  0.078580
			 0.949839  0.218489 -0.223759
			-0.991102 -0.079161  0.107004
			-0.928908 -0.065016 -0.364558
			-0.523780 -0.045791  0.850622
			-0.676487 -0.024528 -0.736046
			 0.600020  0.051275  0.798340
			-0.216617  0.043218 -0.975300
			 0.968537  0.085584 -0.233693
			 0.465579  0.119736 -0.876869
			 0.957340  0.268031 -0.107982
			 0.977245  0.091194 -0.191508
			 0.972942  0.226623 -0.045010
			 0.987464  0.124236 -0.097366
			-0.916319 -0.048422  0.397511
			-0.979487 -0.115555 -0.165082
			-0.425678  0.029935  0.904379
			-0.733754 -0.124352 -0.667938
			 0.415394  0.055306  0.907959
			-0.250661 -0.081029 -0.964678
			 0.944855 -0.019087  0.326933
			 0.411039 -0.027405 -0.911206
			 0.998141 -0.041750 -0.044396
			 0.923454 -0.001203 -0.383709
			-0.700572 -0.080768  0.708996
			-0.980259 -0.191736  0.048270
			-0.249022  0.003289  0.968492
			-0.730778 -0.200045 -0.652645
			 0.167778 -0.030320  0.985359
			-0.233015 -0.155824 -0.959908
			 0.582966 -0.146680  0.799146
			 0.288861 -0.111275 -0.950882
			 0.971873 -0.199087  0.125811
			 0.747696 -0.124478 -0.652270
			-0.625242 -0.116670  0.771661
			-0.975005 -0.171926  0.140739
			-0.174012 -0.067093  0.982455
			-0.799494 -0.191181 -0.569437
			 0.049970 -0.095888  0.994137
			-0.273459 -0.194866 -0.941938
			 0.417058 -0.170833  0.892680
			 0.228487 -0.172803 -0.958088
			 0.963907 -0.237096  0.121113
			 0.650664 -0.188335 -0.735640
			-0.598393  0.173089  0.782283
			-0.967561  0.112421  0.226246
			-0.184053  0.218068  0.958421
			-0.901425  0.062818 -0.428353
			-0.018228  0.172405  0.984858
			-0.395087  0.018832 -0.918451
			 0.395208  0.128877  0.909506
			 0.233334  0.020216 -0.972186
			 0.973178  0.147362  0.176659
			 0.720011  0.082357 -0.689058
			-0.275903  0.856206  0.436794
			-0.522594  0.840290  0.144251
			-0.170037  0.867597  0.467293
			-0.562280  0.797521 -0.218637
			-0.093576  0.876326  0.472543
			-0.399531  0.796919 -0.453094
			 0.237428  0.867364  0.437387
			 0.056355  0.859090 -0.508713
			 0.485335  0.857747  0.169469
			 0.462308  0.860883 -0.212488
			-0.039581  0.998711  0.031760
			-0.437539 -0.849958  0.293481
			-0.503401 -0.857640 -0.105077
			 0.225890 -0.974097 -0.010469
			-0.886052 -0.261098  0.383067
			-0.981545 -0.161935 -0.101719
			-0.184820 -0.868689  0.459588
			-0.427325 -0.385281  0.817895
			-0.341354 -0.783798 -0.518786
			-0.748905 -0.127834 -0.650231
			 0.321179 -0.826118  0.463005
			 0.713381 -0.673426  0.193870
			 0.780734 -0.621198 -0.067579
			 0.666736 -0.661557 -0.343226
			 0.274216 -0.732127 -0.623535
			-0.116455 -0.745033 -0.656783
			-0.920856 -0.009769  0.389780
			-0.989584  0.089514 -0.112744
			-0.461686 -0.081934  0.883251
			-0.748123  0.118258 -0.652937
			 0.388357 -0.259778  0.884135
			 0.457761  0.034845  0.888392
			-0.267773 -0.131563 -0.954457
			-0.262817  0.089720 -0.960665
			 0.850967 -0.011107  0.525102
			 0.998316  0.024936  0.052369
			 0.849389 -0.091544 -0.519768
			 0.333533 -0.147861 -0.931071
			-0.978650  0.004026  0.205493
			-0.948175  0.069649 -0.310022
			-0.501761 -0.030767  0.864459
			-0.640017  0.123793 -0.758323
			 0.590721  0.019463  0.806641
			-0.180759  0.157866 -0.970775
			 0.910093  0.283147  0.302586
			 0.975454  0.146737 -0.164187
			 0.472848  0.072584 -0.878150
			 0.485926  0.189026 -0.853314
			 0.953044  0.292411  0.078764
			 0.966958  0.127531 -0.220745
			-0.995665  0.000967  0.093002
			-0.926008  0.011987 -0.377312
			-0.520406  0.000815  0.853919
			-0.667076  0.034595 -0.744186
			 0.603643  0.002606  0.797250
			-0.192852  0.062580 -0.979230
			 0.975321  0.004505 -0.220748
			 0.477920  0.080394 -0.874716
			 0.982655  0.178620 -0.049841
			 0.989906  0.001339 -0.141722
			 0.990668  0.136265  0.003098
			 0.997745  0.033236 -0.058316
			-0.920696  0.028732  0.389221
			-0.984619 -0.030209 -0.172086
			-0.409257  0.065529  0.910063
			-0.750358 -0.058604 -0.658428
			 0.442860  0.021623  0.896330
			-0.267989 -0.060203 -0.961539
			 0.937900 -0.096298  0.333271
			 0.404276 -0.063700 -0.912416
			 0.991533 -0.125951 -0.031602
			 0.920787 -0.079400 -0.381899
			-0.713531 -0.020705  0.700317
			-0.993145 -0.102910  0.055426
			-0.251327  0.022846  0.967633
			-0.755210 -0.130160 -0.642430
			 0.177111 -0.045456  0.983141
			-0.286571 -0.129452 -0.949273
			 0.557976 -0.197560  0.805998
			 0.244928 -0.133528 -0.960302
			 0.946681 -0.291643  0.136895
			 0.728690 -0.191433 -0.657544
			-0.647741 -0.057905  0.759657
			-0.987329 -0.086164  0.133258
			-0.195237 -0.045225  0.979713
			-0.823440 -0.115831 -0.555455
			 0.026156 -0.099380  0.994706
			-0.328147 -0.168115 -0.929547
			 0.379570 -0.210307  0.900942
			 0.172780 -0.190344 -0.966394
			 0.935900 -0.332384  0.116668
			 0.608299 -0.241781 -0.755985
			-0.561994  0.235639  0.792866
			-0.953889  0.203097  0.221014
			-0.127324  0.234161  0.963824
			-0.888790  0.141759 -0.435841
			 0.017672  0.153828  0.987940
			-0.388840  0.053317 -0.919761
			 0.413501  0.068655  0.907912
			 0.242218  0.005923 -0.970204
			 0.984699  0.047594  0.167639
			 0.723364  0.021852 -0.690121
			-0.053859  0.888497  0.455711
			-0.339147  0.926865  0.160936
			 0.058442  0.879567  0.472172
			-0.380260  0.892019 -0.244344
			 0.132660  0.866106  0.481935
			-0.170611  0.861358 -0.478492
			 0.457526  0.780304  0.426375
			 0.292822  0.825620 -0.482293
			 0.653404  0.741954  0.150222
			 0.631062  0.749160 -0.201295
			 0.239338  0.970653  0.023433
			-0.619625 -0.743100  0.252719
			-0.669270 -0.739414 -0.073108
			-0.098512 -0.995054  0.012790
			-0.914326 -0.180952  0.362304
			-0.990718 -0.075150 -0.113268
			-0.417933 -0.812001  0.407414
			-0.519892 -0.355744  0.776633
			-0.532938 -0.718052 -0.447637
			-0.759986 -0.062586 -0.646919
			 0.051938 -0.887810  0.457270
			 0.502240 -0.834258  0.227528
			 0.601396 -0.796134 -0.067031
			 0.462630 -0.811599 -0.356764
			 0.029718 -0.794012 -0.607176
			-0.342983 -0.716875 -0.607003
			-0.923390  0.075314  0.376402
			-0.970593  0.190046 -0.147755
			-0.468374 -0.038764  0.882680
			-0.712483  0.202774 -0.671752
			 0.303843 -0.329834  0.893806
			 0.457463  0.002288  0.889226
			-0.310384 -0.120080 -0.942997
			-0.238148  0.121256 -0.963630
			 0.844506 -0.112875  0.523516
			 0.995490 -0.087066  0.037668
			 0.817530 -0.192277 -0.542839
			 0.275326 -0.198922 -0.940545
			-0.975790  0.096570  0.196235
			-0.925563  0.166142 -0.340191
			-0.493336  0.016531  0.869682
			-0.608998  0.197778 -0.768118
			 0.584443 -0.031326  0.810830
			-0.122515  0.183046 -0.975441
			 0.932376  0.208216  0.295503
			 0.986348  0.063089 -0.152112
			 0.482392  0.020666 -0.875711
			 0.538933  0.143765 -0.829990
			 0.974981  0.212941  0.063780
			 0.972721  0.039297 -0.228624
			-0.990631  0.098101  0.095006
			-0.916695  0.100183 -0.386825
			-0.511993  0.051813  0.857426
			-0.659254  0.096196 -0.745742
			 0.601851 -0.050999  0.796978
			-0.162543  0.078335 -0.983587
			 0.970611 -0.087849 -0.224047
			 0.499229  0.039546 -0.865567
			 0.990177  0.103701 -0.093781
			 0.981381 -0.087308 -0.171080
			 0.997476  0.060309 -0.037478
			 0.994428 -0.047123 -0.094297
			-0.911062  0.120305  0.394327
			-0.984588  0.055661 -0.165798
			-0.382631  0.113087  0.916954
			-0.758540 -0.001761 -0.651624
			 0.445768 -0.015472  0.895015
			-0.270466 -0.048382 -0.961513
			 0.915462 -0.199272  0.349598
			 0.384922 -0.113285 -0.915970
			 0.969533 -0.244256 -0.018584
			 0.901203 -0.182997 -0.392867
			-0.712517  0.047456  0.700048
			-0.998481 -0.020741  0.051048
			-0.229249  0.054774  0.971825
			-0.776736 -0.072223 -0.625672
			 0.164273 -0.059611  0.984612
			-0.307166 -0.116803 -0.944461
			 0.485379 -0.269708  0.831664
			 0.209960 -0.172107 -0.962443
			 0.886679 -0.435620  0.155033
			 0.671588 -0.289568 -0.681998
			-0.660771 -0.000319  0.750588
			-0.991524  0.002275  0.129901
			-0.201643 -0.029614  0.979011
			-0.839260 -0.049918 -0.541434
			-0.002091 -0.105915  0.994373
			-0.370038 -0.155472 -0.915915
			 0.299497 -0.263193  0.917077
			 0.107866 -0.229229 -0.967377
			 0.867234 -0.479780  0.133102
			 0.533480 -0.338813 -0.774987
			-0.480194  0.332972  0.811507
			-0.906191  0.346816  0.241942
			-0.035111  0.275707  0.960600
			-0.855501  0.258894 -0.448433
			 0.076002  0.171439  0.982259
			-0.364497  0.102422 -0.925555
			 0.425707  0.040831  0.903939
			 0.237480 -0.025386 -0.971061
			 0.984908 -0.053918  0.164465
			 0.717723 -0.069979 -0.692804
			 0.216043  0.860176  0.461976
			-0.091247  0.980787  0.172424
			 0.328397  0.828732  0.453164
			-0.157247  0.945892 -0.283834
			 0.361598  0.804374  0.471412
			 0.086954  0.861588 -0.500104
			 0.611613  0.680315  0.403858
			 0.499808  0.726183 -0.472070
			 0.782625  0.610122  0.123487
			 0.762950  0.613294 -0.204395
			 0.489969  0.871472  0.021610
			-0.856233 -0.489078  0.166335
			-0.885874 -0.458526 -0.070578
			-0.638835 -0.769270 -0.010622
			-0.943770 -0.018220  0.330100
			-0.986443  0.119701 -0.112258
			-0.756336 -0.576227  0.309708
			-0.665349 -0.248448  0.703978
			-0.802041 -0.475843 -0.360974
			-0.771616  0.088827 -0.629856
			-0.485387 -0.779601  0.395754
			-0.082759 -0.961155  0.263310
			 0.062580 -0.994700 -0.081588
			-0.126116 -0.894429 -0.429059
			-0.446309 -0.671173 -0.591891
			-0.658601 -0.520088 -0.543833
			-0.881623  0.263703  0.391410
			-0.885075  0.440573 -0.150125
			-0.482016  0.032184  0.875571
			-0.578754  0.385356 -0.718710
			 0.057536 -0.412761  0.909021
			 0.450738 -0.077677  0.889270
			-0.369943 -0.067519 -0.926598
			-0.125066  0.183938 -0.974949
			 0.739837 -0.355765  0.571028
			 0.933171 -0.358626  0.024077
			 0.682430 -0.403355 -0.609585
			 0.128054 -0.269538 -0.954438
			-0.928049  0.300127  0.220563
			-0.844831  0.392102 -0.364027
			-0.484621  0.100392  0.868944
			-0.456537  0.352694 -0.816811
			 0.562014 -0.149280  0.813545
			 0.037914  0.228788 -0.972738
			 0.957406  0.057648  0.282933
			 0.984870 -0.106783 -0.136487
			 0.496216 -0.054296 -0.866499
			 0.601108  0.075212 -0.795621
			 0.995933  0.064432  0.062981
			 0.964151 -0.116746 -0.238290
			-0.949183  0.295689  0.107795
			-0.858295  0.282424 -0.428447
			-0.474516  0.147685  0.867770
			-0.576335  0.231837 -0.783639
			 0.572862 -0.172431  0.801309
			-0.084610  0.121031 -0.989036
			 0.932133 -0.281029 -0.228366
			 0.505746 -0.035669 -0.861945
			 0.995610 -0.056541 -0.074596
			 0.940133 -0.280962 -0.192899
			 0.994371 -0.095369 -0.046175
			 0.964392 -0.230601 -0.129503
			-0.848360  0.311741  0.427906
			-0.952000  0.246893 -0.180945
			-0.301594  0.195764  0.933122
			-0.740338  0.135917 -0.658351
			 0.423773 -0.102128  0.899992
			-0.297299 -0.001155 -0.954784
			 0.814630 -0.433895  0.384856
			 0.299199 -0.191716 -0.934733
			 0.860288 -0.507669 -0.046653
			 0.801009 -0.394375 -0.450392
			-0.660280  0.180026  0.729124
			-0.986365  0.146766  0.074455
			-0.191722  0.103402  0.975987